375
Lattice="15.5 0.0 0.0 0.0 15.5 0.0 0.0 0.0 15.5" Properties=species:S:1:pos:R:3:force:R:3 energy=-1880.84303649208 stress="-0.004539061766299805 -0.00043599364535506596 -0.00026649177158077024 -0.00043599364535506596 -0.0046036114913369924 0.000721814414073309 -0.00026649177158077024 0.000721814414073309 -0.0054400351027178336" pbc="T T T"
H        2.65170308       2.37813400      12.14579707      -0.06108266       0.17475353      -0.16798168
H        3.37152982       3.76408380      12.18358463      -0.31935907      -0.17323020      -0.07887553
H        9.80550978      10.05688521       1.68228447       0.07208094      -0.07631303      -0.13566913
H        9.42743030       9.27162536       0.44726664       0.22309238       0.04190435      -0.15940944
H        4.46571580      13.70708527      13.09102819      -0.00245263       0.09145771      -0.16368468
H        3.10527857      13.51479052      13.85133032       0.00326943       0.31451374      -0.11707208
H        1.56307921      10.34095763       9.96597359       0.28514198       0.12332826       0.13755633
H        0.20055109       9.75970787       9.81559823      -0.37755633      -0.08735843       0.40748017
H       13.79194931      12.14931002       6.43823385       0.29630632       0.02505441      -0.06825083
H       12.75512524      11.04921113       6.54892149      -0.05538061      -0.13137596      -0.23727949
H       11.45241007      13.31462526      15.01977503      -0.21154665      -0.12070453       0.28195455
H        9.89598424      13.26511505      14.63950107       0.02419022      -0.05110623       0.01499073
H       14.35601159       2.90260034       6.46287126      -0.12036703       0.18635734      -0.26228101
H       13.82524355       4.04032602       5.59439525       0.23885338      -0.50274021      -0.20846154
H        9.06815787       1.73103296       8.42631045       0.16271085       0.08778718      -0.14862461
H        9.03468414       3.27086986       8.63629130       0.05348076      -0.03807129      -0.08967492
H        9.88634228       8.80645732       9.96292998       0.09634561       0.02137319      -0.08668367
H        8.54984348       9.38271448       9.44071900       0.04110831       0.09177489      -0.17254513
H        4.25246798       8.15860674      10.41604506      -0.12753996      -0.21636740      -0.10101211
H        5.15644881       9.37039827      10.06628787       0.11244011       0.41463112      -0.00793659
H        6.84101394       4.54926680       7.17177121      -0.15639093      -0.06242384       0.03859397
H        6.71449742       3.14016385       7.73053928      -0.13929776       0.08751552       0.03601006
H        2.51717066       3.36243946       1.47458343       0.11665173      -0.79866623      -0.06930708
H        3.15474656       2.18280174       2.25445039      -0.27979414       0.01691070      -0.52768561
H        3.20851021      12.29492175      12.10199258       0.35170509      -0.09182650      -0.36531900
H        4.42953110      11.49461228      11.51114863      -0.37813451       0.05234709       0.11908373
H        8.22110816       4.19504708       3.17074626       0.13199594      -0.01833289       0.03762966
H        9.17850582       3.39977507       4.13939043       0.01534069      -0.03286579       0.06920399
H       11.60217389       3.30031754       5.59899034       0.20112916       0.16552794      -0.07759429
H       12.11661533       1.96516583       4.95136324      -0.07678470      -0.00947081      -0.14626396
H       12.95213590       5.47960304       6.43440134       0.14811432      -0.09764485       0.23441918
H       11.56578098       5.77303929       5.84506573      -0.33170529       0.08669589      -0.11200252
H        8.59612866      12.95025387       5.71448150      -0.02524119       0.01149499      -0.12589169
H        8.52005288      12.79428344       4.13452140      -0.08038372       0.01212709       0.11509463
H       12.46981397       0.92302134      14.10743536      -0.04452486       0.67297940      -0.14573844
H       11.84644762       2.13286614      14.84183113       0.51505800      -0.31536164      -0.79978920
H       11.09464281       0.56382949       7.40599478      -0.30249091       0.13522864      -0.03413975
H       10.38180080       1.61908079       6.46457584       0.19740673      -0.38262031      -0.02222264
H        6.13770221      12.05557422       2.29941728       0.25688655      -0.59773730       0.19986028
H        5.46958336      12.96031125       3.43435396       0.27397409      -0.17766033      -0.89487178
H       13.83823522       3.13152452      14.20915639       0.07524696       0.00004864       0.27639318
H       14.27732040       4.59889743      14.42052019       0.11896234       0.09512757      -0.01941817
H        4.35775311       4.38404469       1.31465358      -0.63522245       0.20964802       0.18107907
H        4.48347287       5.88972991       1.43295091      -0.65623716      -0.35741804       0.13500056
H       15.24674843       5.93569020       5.98481451      -0.26877436       0.01041345       0.07022845
H       14.94596374       5.18559118       7.24147540      -0.40028128       0.36903276       0.00985063
H        0.92405845       1.98976332       2.68678880       0.07958193      -0.12708162       0.16188008
H        1.49863905       1.83226718       4.12113616      -0.47932518      -0.05311001      -0.19900404
H        6.63949932       0.75230123       9.88015446      -0.11034146      -0.02866765       0.01959901
H        5.10653421       0.80958927      10.37414612       0.43812325      -0.09970065       0.08599803
H       13.12691288       0.99313843       3.27549963       0.14315783       0.21564067      -0.50490353
H       14.06144934       1.49140910       4.46481731      -0.62038929      -0.47354811      -0.52692877
H       13.16412655      11.18599569       8.93712964       0.00061725       0.00809633       0.17678228
H       12.05080396      10.27940217       9.60462398       0.26230401      -0.05886173      -0.19509315
H        4.77286834       5.54780025       7.74047350       0.23542028       0.12423291       0.01047548
H        5.87951777       6.66410633       7.38210638      -0.09315613      -0.16108147      -0.10737410
H        9.08043560      10.53307908       4.96156190      -0.07885295       0.14155190       0.33330579
H        8.68307870       9.42509590       4.02640846       0.02365603      -0.08621243      -0.11706881
H        2.28701125       9.81691775      13.21190486       1.24609951      -0.27035442      -0.08664318
H        1.17570013      10.44390071      12.32758265       0.02322560      -0.55936653       0.45101625
H        1.51613377       8.81588458       0.49710230       0.30094014       0.14262234      -0.03611250
H        2.05279199      10.14022735       1.13849231       0.05222324      -0.12126280       0.13586374
H       15.03999102       9.78094837       5.26913845      -0.32135017       0.58626519       0.07131729
H       15.10588178       8.54860892       6.14205258      -0.14982761      -0.11401933      -0.06027637
H       12.91896703       7.89059737       7.85394804       0.19532283      -0.00221790      -0.08650066
H       13.23024611       9.36693249       7.56792338      -0.03228375      -0.24105791       0.18263893
H        7.12687859       2.65581566      12.10211413       0.15477741       0.02879744       0.12447972
H        8.35852585       3.44847528      12.40587577      -0.07405534      -0.53664836       0.16571078
H        7.13661943       0.15039969       4.79220694      -0.05409077       0.11890090      -0.36613819
H        5.65420969       0.43791776       5.08321265      -0.05630919       0.31958120       0.05620241
H        5.16654988       8.57368362       1.78956833       0.12929833       0.90929836       0.10394818
H        4.38306678       9.81426444       2.06854605      -1.98943046       0.77568957       0.24310334
H       12.48064359      14.86156948       1.77952426      -0.92875604       0.02761474       0.53663487
H       11.05479163      14.29996593       2.34128320       0.42340415       0.32078038      -0.10103982
H        9.88338483       7.13912474       7.42183654       0.20536220       0.15040150       0.13565257
H       10.76740157       8.16226891       6.64994727      -0.10441877      -0.01244952       0.26680522
H       11.20019443      14.24096172       4.92715378      -0.13876173       0.18475896      -0.20867968
H       11.02918964      12.73114299       5.27050941      -0.07256373       0.27320961      -0.17121972
H        5.98240294      10.05402752      15.19136651      -0.39356962       0.02026223      -0.06156663
H        7.37286406       9.47819463      15.14766714       0.14823636       0.13728503      -0.06399322
H       13.66114092      14.31207802       7.13312771       0.01692633       0.07745858       0.11492385
H       14.60754044      13.87868238       5.97276958      -0.01099955       0.03317295       0.03545024
H        0.72154472       5.49107687      11.96390380       0.07608473      -0.40518203       0.58663381
H        1.20052556       4.01520161      12.35288608       0.05089998       0.12853780      -0.17100815
H        3.35147132      11.43518207       3.42261884      -0.09787515       0.15704206      -0.21413426
H        3.61190759      12.43932130       2.26925146      -0.22526775      -0.49499362       0.16964903
H       11.32739974       6.64016464      10.01734023       0.12173067       0.09483033       0.22643901
H       10.21564147       7.14657661      10.88360605       0.30853019      -0.13567849       0.18679464
H       13.34596291       3.11342077       8.57201803       0.14280892       0.13704515      -0.11376576
H       14.81344850       3.71152899       8.72040557       0.11192860      -0.17131171      -0.13359041
H        9.41268649       4.76732207       9.99502336      -0.04204604       0.19655182      -0.17317207
H        8.45871551       5.93539039       9.66308035      -0.03322193       0.10152042      -0.13599680
H       11.03357304      11.48564889       8.00940719       0.07244207       0.01939993      -0.03769567
H       10.43398902      12.70001926       7.19843996       0.07899649      -0.08814441       0.17951607
H        3.88302920       3.77105866       9.23540583       0.51958279      -0.19084536       0.16497001
H        4.27510134       2.68929039      10.31875378      -0.12008766       0.39820664      -0.08065343
H        4.42702935       4.14295154      13.96400933       0.19972069      -0.31485964       0.43509354
H        4.61058246       2.63174801      14.37636650      -0.09148124       0.01882408       0.02854266
H       14.53969696       0.38224510      10.89546446       0.49218902      -0.14439035      -0.30275938
H       13.52050021       1.22951270      11.58793234      -0.35475240       0.41817563       0.08128533
H        1.28353584       5.47272154       8.40231322       0.07580034      -0.11261031       0.32504854
H        0.83786358       5.11685470       9.80667928       0.02688891      -0.07560958       0.05605767
H        6.10545256      13.77016799      15.13527937       0.05038547       0.06216435       0.05598780
H        6.15237416      12.21201704      14.99837420      -0.07343806       0.51294807      -0.43273628
H        3.38157743       9.54244024       9.26460725      -0.15260737       0.15606771      -0.22837174
H        2.38966862      10.04152023       8.07695178       0.12652670      -0.04606494       0.29874126
H        6.79087428       6.06461579       3.17886067      -0.08955061      -0.18975977       0.11043187
H        5.60779195       5.08605938       2.99088939       0.05399120      -0.10699921      -0.01520937
H        6.75616677      13.20396665      11.53515163      -0.51406838       0.26899852      -0.09973980
H        5.99246940      14.48318159      11.09529189      -0.24406839      -0.62504375       0.27304770
H        6.84074305      10.05473135      11.10134470      -0.10313024      -0.15471744       0.08332200
H        6.45576942      11.46328662      10.71567388      -0.11725445      -0.37191917      -0.06768659
H        7.48518141       3.07022021      10.04083423       0.16935179       0.22552312       0.10525481
H        6.26302266       3.99599486      10.01170845      -0.03104607      -0.08747843       0.12491842
H        3.88938484      12.47536179       5.47316234       0.08827565       0.43083781      -0.02462886
H        5.06978362      13.56100079       5.57776400      -0.63504018      -0.38910677      -0.66526382
H        0.56211964       9.68660722       2.75715623      -0.08335016       0.47614191       0.09157194
H        0.61519601      11.27297905       2.76080818       0.04563168      -0.45320668      -0.07562039
H        7.26721130      10.40664352       1.64955996       0.14405364       0.11535782      -0.01648610
H        8.19467566      11.68258901       1.80498532       0.03530442      -0.15710987       0.12095518
H       10.59134378       6.05800824       0.94020646       0.05417679       0.17323447       0.00203947
H        9.83761632       7.33906276       1.39542819       0.19165079      -0.10026203      -0.09470030
H        7.56600441       0.79860207      12.82688311       0.18245732      -0.06755560       0.03634714
H        6.63924956       0.42938802      14.00094571      -0.00994837      -0.28320926       0.08096514
H       13.13818930       6.75659688      14.18169505      -0.03399965       0.00248258      -0.01307254
H       14.69267213       6.80334573      14.05029475      -0.21843725       0.11975328      -0.06734729
H        1.75211800       5.24932488      13.84363726       0.02240557       0.15365133      -0.05962001
H        2.82136560       5.50954438      15.02106999      -0.24458080       0.05388162      -0.27232091
H        1.44604189       2.39431417       8.98934883      -0.45633064      -0.65429222       0.67791004
H        0.85169039       1.02790349       8.75977636      -0.59652545      -1.21049826      -1.69035792
H        3.07557276      14.01397076       9.15454975       0.29838613      -0.36549839      -0.20033354
H        3.61727978      12.66348478       9.69229060      -0.14411231       0.10785467      -0.22476005
H       10.57850959       0.58916331       1.26673648       0.23843656      -0.41970080      -0.03419810
H        9.56941145       0.56481510      15.47611383       0.66937919       0.94864213       2.05526830
H        2.61279481       6.72602218      11.88880413       1.12738084       0.28345027      -0.66927566
H        4.09322058       6.16297729      11.87170141       0.12114475       0.10271241       0.04343709
H        0.92094487       8.25293659      11.32833445       0.13349758       1.32969974       0.16288833
H       15.35395804       7.15793105      11.07322516       0.25061258      -0.12328077      -0.09178774
H        6.78320996       7.50918070      10.90953792      -0.03895407      -0.13016457      -0.26678007
H        6.21455896       6.87927223       9.57656462      -0.04185329      -0.03091030       0.06347784
H       10.60785179       6.95273017       4.07841616      -0.11643536       0.11379352      -0.07193843
H        9.65726796       5.68546070       3.79936536       0.00210379       0.37223514       0.12299545
H        8.91763470       9.87731942       7.31026382      -0.21016410       0.24356760       0.30090284
H        7.79412294      10.83695554       7.77249686       0.02892897      -0.04743809      -0.06873925
H        6.39174422       3.91710028      14.80093713      -0.81778313      -0.47379104      -0.31998169
H        7.93115207       3.88240914      14.95167226       0.28376157      -0.07132001      -0.16193337
H        6.76238833       3.11859127       1.26702473       0.11529756       0.27715910      -0.42486406
H        6.12361425       1.70740628       1.39654583       0.08121069      -0.65496092      -0.28695566
H        2.31805189       0.82670972      10.57799630      -0.38938527       0.06026259      -0.13165155
H        2.94372621      15.37293596      11.74555635       0.15740300       0.47653904      -0.48199256
H        2.50115764       7.07101304       9.55651902      -0.23446654       0.07049604      -0.24412336
H        3.21761198       7.08761948       8.21059065      -0.36259818       0.06424894       0.13657987
H        5.84084507      14.60207699       1.55134066       0.33160402      -0.05268367      -0.15419752
H        7.32725116      14.88239401       1.39881075      -0.43235512       0.30007234      -0.30676937
H       13.91377500      10.59554614       2.00696189       0.41818017      -0.05712379       0.13612180
H       12.77130256       9.71210403       1.47177956       0.03721074       0.43560096       0.20903963
H        8.91818070      12.13076001      10.38924767      -0.21971080       0.06327543       0.11577622
H        8.51779833      11.39408957      11.69650235      -0.06933968       0.38907221      -0.06359779
H        5.52337687       8.85106728      12.80687364       0.20032118       0.02612999      -0.01863909
H        5.91310046       7.41058371      12.93523070       0.12801044      -0.22649541      -0.01514943
H       11.49298087       1.89519041      12.08859220       0.04790910      -0.02648059      -0.25154381
H       11.24233581       2.26165547      10.52948167       0.17409171      -0.10155125       0.25951010
H        7.58529184       1.77392948       3.14955097       0.05489123      -0.63529621       0.15404345
H        8.81634448       0.85300876       3.05869811       0.45931135      -0.14365399      -0.33640173
H        8.53604426       5.43674193      13.23312674       0.01408558       0.18562431      -0.20045112
H        7.94250096       5.78828968      11.82419633      -0.16601427       0.14561152       0.49176031
H       11.19125967      11.86403821      10.77250649       0.05203528       0.20487404       0.17928512
H       10.56482086      13.10912867      11.48235003       0.01682220       0.04781897       0.18924070
H        1.20245387      12.72572173      14.75806556       1.19018024      -0.22743449       0.02499959
H        2.29529126      11.59677228      14.84402541      -0.18673099       0.42194643      -0.17452382
H       13.49281925      13.30108535       4.37400813       0.02450242      -0.02158167       0.03868731
H       14.10398768      14.66506057       3.99237524       0.11441021      -0.27046926       0.36440001
H        8.79971234       9.44915955      12.23403290       0.10152324       0.01264215      -0.08074070
H        8.37141056      10.13628480      13.56903305       0.43068340       0.09463045      -0.34111563
H        3.08640342      14.49584498       4.69836033      -0.38745070       0.42958540      -0.00682472
H        1.64882092      14.97010775       4.17807806       0.28226559       0.05647118       0.16073854
H        4.10305874       8.30971656       4.20787174      -0.10973423       0.14796016       0.08913014
H        2.64965754       7.79725976       4.01505994      -0.03425007       0.00765481       0.02725712
H        6.38293382       5.76459370       0.21610249      -0.44074436       0.76324040       0.27629131
H        6.58142918       7.09423829       0.95374417      -0.24461122      -0.05084715      -0.16558443
H        5.84546480      11.53719303       8.20486336      -0.11020354       0.23016251      -0.04724061
H        6.36700563      12.99014853       8.19968366       0.01248982      -0.26198349      -0.15191995
H        8.86884842      14.89779363       6.82718179      -0.37775478      -0.22914380       0.10244478
H        7.36794312      14.56007423       6.47373964       0.28629085       0.06259602       0.15982826
H       10.74666124      10.07076929      11.75324013      -0.01245023      -0.06735886      -0.03933409
H       12.21631317      10.22711331      12.14212734      -0.01788381       0.12198670       0.07695778
H        3.25685075      11.89660314       7.33505310      -0.32929624       0.12526720       0.06212289
H        4.01943132      10.93292421       6.43117246      -0.06148806      -0.41845136      -0.02578564
H       14.55912132      12.85781578       8.68265496       0.21957174      -0.15535603       0.07473594
H       15.21097122      11.77958759       9.70396125      -0.10877975       0.09590256      -0.07937414
H        4.31270797       0.13384659      13.83329901      -0.11436964      -0.03105015      -0.28432297
H        4.01332087       0.94494896      15.08151265       0.21957623       0.01945335       0.05995082
H        1.22533960       7.25090277      14.54428572      -0.16540468       0.08077132      -0.03129685
H        0.59892136       8.68650112      14.21770132      -0.04228319      -0.72475581       0.01537031
H        8.16938410      12.89190876      13.67047133      -2.15302576      -2.12789906       0.27573638
H        8.30147501      14.37719770      13.54032761       0.22636873      -0.19682504       0.03179893
H        5.42670827       3.03508226       4.03448164       0.02195381      -0.33358845       0.10673016
H        5.27075434       2.84432119       5.56098173       0.08588872      -0.05511053      -0.18890338
H       11.29220086      11.37406769      13.88693472       0.14497191      -0.12354770       0.14284268
H       11.84879570      10.35419739      14.86631122       0.24522221       0.28654526      -0.57368924
H        8.05892232       6.77440429       5.49282969       0.16816394      -0.07646290      -0.28737488
H        8.12409650       8.17760436       6.09872742      -0.18848389      -0.11428163      -0.00208995
H        7.71506973       7.81632421      13.99658616       0.13870247       0.16707331       0.50668577
H        8.91353283       7.53981895      14.98314092      -0.43789767       0.05633349       0.21357456
H        3.65987460       7.70666270      14.03293122       0.28628985       0.22926595      -0.04952515
H        3.47477101       8.84994863      15.03804600       0.17502479       0.28453510       0.02372923
H        8.35988289       3.94840470       5.83099378      -0.07290295      -0.09168498       0.06163232
H        7.94098815       2.46865181       5.87181729       0.08632877       0.03090807      -0.08226319
H        1.08262728       3.55192887       5.63631293       0.07343447       0.54064230       0.02570116
H        2.00638470       4.78887961       5.18808944       0.14580166      -0.15281365      -0.00035107
H        2.78079128       1.98553126       6.82561422      -0.18061860      -0.08569543      -0.29767904
H        2.10256240       0.84126653       5.92861121       0.27166896       0.11036835       0.07096458
H       14.22832938      14.44332805       0.02871205      -0.00346594       0.08947912      -0.75107396
H       14.29778561      13.12136895       0.83117312      -0.27628373       1.11246142       0.17199165
H       10.42262588       3.35143720      12.93930909       0.07741526       0.25545950       0.09849930
H       11.17547728       4.60300857      12.42948556      -0.63129143      -0.13582370       0.16791561
H       11.55363665       8.51982627      13.42207437      -0.17686265      -0.35854007       0.24283341
H       11.50309424       7.09391781      12.82915557      -0.23119239       0.41233213       0.19313817
H       12.12404956      13.86771251       9.76740360       0.08974831       0.43512130      -0.20953064
H       12.56146968      15.26884309      10.20910285      -0.06507743       0.00128359      -0.33103409
H       13.14215691       6.26764474       2.02643263      -0.06987036       0.16135555      -0.29578151
H       12.22337087       7.48212991       1.98336210       0.13659352      -0.01703213      -0.07510016
H       10.92929120       3.51981293       2.71441599       0.45831311       0.29895559      -0.29055208
H       12.27663294       4.14375686       3.16041350      -0.15164011      -0.19041888      -0.06360723
H       13.83790677      14.31298475      12.74841072       0.00962999       0.08280383      -0.08718844
H       13.67364281      12.76022045      12.96128907      -0.11520403       0.59528546       0.27182332
H        2.13978853       2.50985069      14.78008188      -0.07261555      -0.00546034       0.24255270
H        0.61533735       2.79036313      14.53083607      -0.32790967       0.27714902       0.05753299
H        3.53213242       5.16633899       3.52116753       0.09357485       0.05382610       0.62482575
H        4.18148488       5.84021696       4.77008577      -0.07814396       0.15562168      -0.11897541
H       13.52548953       6.11781612      11.54304547       0.27567268      -0.16702229      -0.43454499
H       14.31879086       4.88715550      11.21725977       0.14070405      -0.01341272      -0.05980472
H        6.14447985       5.14122777      12.67669338       0.13044799       0.29129664       0.27203580
H        5.22253543       4.54554307      11.63403948      -0.18379659      -0.16643792      -0.23463505
H       14.17199427       2.20410976       1.06803585      -0.28182956      -0.06555295      -0.07354657
H       12.83758169       2.60772980       1.74244640      -0.16583513      -0.13017432      -0.19335462
H        8.87755829      14.33155217      10.37674761      -0.20286372       0.28906182       0.09013994
H        9.50003568      15.22675907       9.33521609      -0.10291291       0.14378989       0.14167573
H        8.35266468       7.38043150       3.29081218       0.09298805       0.02630411       0.04237703
H        6.96667669       8.14943768       3.49637538       0.22464361      -0.03156590      -0.18165894
H       10.04417431      12.94751727       1.32480673       0.31405851      -0.16823293      -0.10590139
H       10.09745508      12.32303052       2.81269239       0.14115597       0.11972001      -0.26617530
H        2.49262955       4.27307148       7.09845376      -0.01690911      -0.08259957      -0.17784330
H        3.88791643       4.21448371       6.49429802      -0.24689583      -0.37348998       0.57189319
H       11.15907388       3.71165313       7.90945887       0.21748386       0.07486989       0.19963599
H       11.66408128       4.49587349       9.11561372       0.05161865       0.02246135       0.01897902
H       12.92670018       7.61404704       5.41202848      -0.15093407      -0.02715064      -0.02882275
H       13.65313176       7.97368769       4.19668703      -0.01375129      -0.01119865      -0.25283548
H        4.58473810       8.63922018       6.48704461       0.22641624       0.10284010      -0.20795462
H        6.00993044       8.67973362       5.90476662      -0.36614304       0.19779119      -0.09098400
O        2.64970330       3.27660897      11.73849390       0.15080788       0.04398075       0.20878593
O       10.21607509       9.51199533       0.97433143      -0.14278658      -0.13357578       0.18572648
O        3.55751321      14.08921931      13.16243511       0.27927559      -0.01093852       0.01063672
O        0.67718000      10.27794803      10.49647332      -0.18105865      -0.03365007      -0.55855185
O       13.57673357      11.26027506       6.06786555      -0.09733360       0.00071773       0.17712348
O       10.59439080      12.93379052      15.30764770       0.42621118       0.12940458      -0.29295439
O       14.20738517       3.13901959       5.50719055       0.01049627       0.09413078       0.12887438
O        8.56443279       2.45072823       8.87124660      -0.26000951      -0.15408455      -0.05723646
O        9.03074049       9.14270798      10.28120716       0.01273977      -0.07661451       0.20094676
O        4.54666978       8.71725320       9.65525285       0.28471358      -0.41480050       0.41529153
O        6.20680216       3.80782143       7.21540064       0.43075100      -0.05792307      -0.05827513
O        2.60087542       2.37066224       1.45570741       0.24617577       0.73214224       0.66209885
O        3.45261665      11.60287838      11.44440294      -0.07589699       0.11073202       0.20291917
O        9.16968656       4.06622761       3.41055315      -0.09701323       0.15076138      -0.10248133
O       11.29550715       2.49794877       5.13088080      -0.11517443      -0.22934674       0.24705767
O       12.03348996       5.09087549       6.34677299      -0.02074465      -0.10947771      -0.02418661
O        8.90409018      12.39688273       4.93760306       0.08612406      -0.18253589       0.01104268
O       12.22442792       1.86875972      13.94810692      -0.61537076      -0.40254067       1.06897482
O       10.21096527       0.92661564       7.17553621       0.17403254      -0.12992148       0.02877246
O        5.79349041      12.93803253       2.47352517      -0.88861151       0.83337837       1.11701206
O       14.39626765       3.69178668      14.79330295      -0.09786331      -0.22858418      -0.12327435
O        3.84882369       5.13747418       1.73042947       1.40615635       0.04852610      -0.64092127
O       14.57292121       5.92676639       6.70355540       0.52540565      -0.48247211      -0.04245411
O        0.65236668       1.83139461       3.61483704       0.41745962       0.09048613       0.04542363
O        6.05423933       0.88053059      10.65141285      -0.37649371      -0.18752569       0.03206417
O       13.35118184       0.82588652       4.20641049       0.59023440       0.41254552       0.88240926
O       12.39894713      10.56586254       8.72320146      -0.07245237       0.20730902       0.12201206
O        5.07422812       6.47373357       7.90554326      -0.06926439       0.05909281      -0.04092249
O        9.06874491       9.54271656       4.91314286       0.03280104       0.19830125      -0.07538534
O        1.35625690      10.02818106      13.21636735      -1.21286817       0.57480156      -0.27737042
O        2.35115859       9.31893779       0.69263272      -0.30916295      -0.02658109       0.00074522
O       15.34357473       8.86292285       5.24266034       0.38037779      -0.42526664      -0.22017049